<?xml version="1.0" encoding="UTF-8"?>

<!-- generated on 03/06/20 10:37:48 by Eclipse SUMO GUI Version 1.4.0
<configuration xmlns:xsi="http://www.w3.org/2001/XMLSchema-instance" xsi:noNamespaceSchemaLocation="http://sumo.dlr.de/xsd/sumoConfiguration.xsd">

    <input>
        <net-file value="cross.net.xml"/>
        <route-files value="cross.rou.xml"/>
        <additional-files value="cross.det.xml"/>
    </input>

    <output>
        <tripinfo-output value="tripinfo.xml"/>
    </output>

    <time>
        <begin value="0"/>
        <end value="2000"/>
    </time>

    <report>
        <verbose value="true"/>
        <no-step-log value="true"/>
    </report>

    <traci_server>
        <remote-port value="61591"/>
    </traci_server>

</configuration>
-->

<tripinfos xmlns:xsi="http://www.w3.org/2001/XMLSchema-instance" xsi:noNamespaceSchemaLocation="http://sumo.dlr.de/xsd/tripinfo_file.xsd">
    <tripinfo id="0" depart="0.00" departLane="54o_0" departPos="5.10" departSpeed="0.00" departDelay="0.00" arrival="159.00" arrivalLane="54i_0" arrivalPos="10.00" arrivalSpeed="13.36" duration="159.00" routeLength="2040.12" waitingTime="2.00" waitingCount="1" stopTime="0.00" timeLoss="22.65" rerouteNo="0" devices="tripinfo_0" vType="DEFAULT_VEHTYPE" speedFactor="1.06" vaporized=""/>
    <tripinfo id="5" depart="13.00" departLane="51o_0" departPos="5.10" departSpeed="0.00" departDelay="0.00" arrival="181.00" arrivalLane="52i_0" arrivalPos="10.00" arrivalSpeed="9.96" duration="168.00" routeLength="1015.10" waitingTime="63.00" waitingCount="2" stopTime="0.00" timeLoss="81.78" rerouteNo="0" devices="tripinfo_5" vType="DEFAULT_VEHTYPE" speedFactor="0.83" vaporized=""/>
    <tripinfo id="7" depart="29.00" departLane="51o_0" departPos="5.10" departSpeed="0.00" departDelay="0.00" arrival="183.00" arrivalLane="52i_0" arrivalPos="10.00" arrivalSpeed="10.20" duration="154.00" routeLength="1015.10" waitingTime="50.00" waitingCount="2" stopTime="0.00" timeLoss="73.11" rerouteNo="0" devices="tripinfo_7" vType="DEFAULT_VEHTYPE" speedFactor="0.89" vaporized=""/>
    <tripinfo id="15" depart="89.00" departLane="51o_0" departPos="5.10" departSpeed="0.00" departDelay="0.00" arrival="187.00" arrivalLane="52i_0" arrivalPos="10.00" arrivalSpeed="12.15" duration="98.00" routeLength="1015.10" waitingTime="0.00" waitingCount="0" stopTime="0.00" timeLoss="20.72" rerouteNo="0" devices="tripinfo_15" vType="DEFAULT_VEHTYPE" speedFactor="0.93" vaporized=""/>
    <tripinfo id="16" depart="96.00" departLane="51o_0" departPos="5.10" departSpeed="0.00" departDelay="0.00" arrival="189.00" arrivalLane="52i_0" arrivalPos="10.00" arrivalSpeed="10.90" duration="93.00" routeLength="1015.10" waitingTime="0.00" waitingCount="0" stopTime="0.00" timeLoss="11.66" rerouteNo="0" devices="tripinfo_16" vType="DEFAULT_VEHTYPE" speedFactor="0.88" vaporized=""/>
    <tripinfo id="21" depart="122.00" departLane="51o_0" departPos="5.10" departSpeed="0.00" departDelay="0.00" arrival="201.00" arrivalLane="52i_0" arrivalPos="10.00" arrivalSpeed="11.08" duration="79.00" routeLength="1015.10" waitingTime="0.00" waitingCount="0" stopTime="0.00" timeLoss="7.82" rerouteNo="0" devices="tripinfo_21" vType="DEFAULT_VEHTYPE" speedFactor="1.01" vaporized=""/>
    <tripinfo id="2" depart="3.00" departLane="51o_0" departPos="5.10" departSpeed="0.00" departDelay="0.00" arrival="202.00" arrivalLane="51i_0" arrivalPos="10.00" arrivalSpeed="12.34" duration="199.00" routeLength="2040.12" waitingTime="36.00" waitingCount="1" stopTime="0.00" timeLoss="55.64" rerouteNo="0" devices="tripinfo_2" vType="DEFAULT_VEHTYPE" speedFactor="1.01" vaporized=""/>
    <tripinfo id="1" depart="3.00" departLane="54o_0" departPos="5.10" departSpeed="0.00" departDelay="1.00" arrival="223.00" arrivalLane="54i_0" arrivalPos="10.00" arrivalSpeed="12.86" duration="220.00" routeLength="2040.12" waitingTime="39.00" waitingCount="1" stopTime="0.00" timeLoss="66.17" rerouteNo="0" devices="tripinfo_1" vType="DEFAULT_VEHTYPE" speedFactor="0.94" vaporized=""/>
    <tripinfo id="4" depart="6.00" departLane="54o_0" departPos="5.10" departSpeed="0.00" departDelay="0.00" arrival="225.00" arrivalLane="54i_0" arrivalPos="10.00" arrivalSpeed="13.12" duration="219.00" routeLength="2040.12" waitingTime="39.00" waitingCount="1" stopTime="0.00" timeLoss="78.77" rerouteNo="0" devices="tripinfo_4" vType="DEFAULT_VEHTYPE" speedFactor="1.03" vaporized=""/>
    <tripinfo id="6" depart="22.00" departLane="54o_0" departPos="5.10" departSpeed="0.00" departDelay="0.00" arrival="227.00" arrivalLane="54i_0" arrivalPos="10.00" arrivalSpeed="12.35" duration="205.00" routeLength="2040.12" waitingTime="39.00" waitingCount="1" stopTime="0.00" timeLoss="66.54" rerouteNo="0" devices="tripinfo_6" vType="DEFAULT_VEHTYPE" speedFactor="1.05" vaporized=""/>
    <tripinfo id="8" depart="31.00" departLane="54o_0" departPos="5.10" departSpeed="0.00" departDelay="0.00" arrival="229.00" arrivalLane="54i_0" arrivalPos="10.00" arrivalSpeed="10.82" duration="198.00" routeLength="2040.12" waitingTime="22.00" waitingCount="1" stopTime="0.00" timeLoss="43.98" rerouteNo="0" devices="tripinfo_8" vType="DEFAULT_VEHTYPE" speedFactor="0.94" vaporized=""/>
    <tripinfo id="9" depart="34.00" departLane="54o_0" departPos="5.10" departSpeed="0.00" departDelay="1.00" arrival="236.00" arrivalLane="54i_0" arrivalPos="10.00" arrivalSpeed="10.78" duration="202.00" routeLength="2040.12" waitingTime="9.00" waitingCount="1" stopTime="0.00" timeLoss="33.66" rerouteNo="0" devices="tripinfo_9" vType="DEFAULT_VEHTYPE" speedFactor="0.86" vaporized=""/>
    <tripinfo id="10" depart="41.00" departLane="54o_0" departPos="5.10" departSpeed="0.00" departDelay="0.00" arrival="238.00" arrivalLane="54i_0" arrivalPos="10.00" arrivalSpeed="11.88" duration="197.00" routeLength="2040.12" waitingTime="7.00" waitingCount="1" stopTime="0.00" timeLoss="64.66" rerouteNo="0" devices="tripinfo_10" vType="DEFAULT_VEHTYPE" speedFactor="1.09" vaporized=""/>
    <tripinfo id="12" depart="45.00" departLane="54o_0" departPos="5.10" departSpeed="0.00" departDelay="0.00" arrival="240.00" arrivalLane="54i_0" arrivalPos="10.00" arrivalSpeed="12.97" duration="195.00" routeLength="2040.12" waitingTime="4.00" waitingCount="1" stopTime="0.00" timeLoss="57.28" rerouteNo="0" devices="tripinfo_12" vType="DEFAULT_VEHTYPE" speedFactor="1.05" vaporized=""/>
    <tripinfo id="13" depart="53.00" departLane="54o_0" departPos="5.10" departSpeed="0.00" departDelay="0.00" arrival="242.00" arrivalLane="54i_0" arrivalPos="10.00" arrivalSpeed="12.63" duration="189.00" routeLength="2040.12" waitingTime="0.00" waitingCount="0" stopTime="0.00" timeLoss="60.67" rerouteNo="0" devices="tripinfo_13" vType="DEFAULT_VEHTYPE" speedFactor="1.12" vaporized=""/>
    <tripinfo id="3" depart="6.00" departLane="51o_0" departPos="5.10" departSpeed="0.00" departDelay="2.00" arrival="253.00" arrivalLane="51i_0" arrivalPos="10.00" arrivalSpeed="10.88" duration="247.00" routeLength="2040.12" waitingTime="85.00" waitingCount="3" stopTime="0.00" timeLoss="113.94" rerouteNo="0" devices="tripinfo_3" vType="DEFAULT_VEHTYPE" speedFactor="1.08" vaporized=""/>
    <tripinfo id="11" depart="42.00" departLane="51o_0" departPos="5.10" departSpeed="0.00" departDelay="0.00" arrival="261.00" arrivalLane="51i_0" arrivalPos="10.00" arrivalSpeed="11.93" duration="219.00" routeLength="2040.12" waitingTime="41.00" waitingCount="2" stopTime="0.00" timeLoss="78.84" rerouteNo="0" devices="tripinfo_11" vType="DEFAULT_VEHTYPE" speedFactor="1.03" vaporized=""/>
    <tripinfo id="34" depart="173.00" departLane="51o_0" departPos="5.10" departSpeed="0.00" departDelay="1.00" arrival="261.00" arrivalLane="52i_0" arrivalPos="10.00" arrivalSpeed="12.23" duration="88.00" routeLength="1015.10" waitingTime="0.00" waitingCount="0" stopTime="0.00" timeLoss="16.18" rerouteNo="0" devices="tripinfo_34" vType="DEFAULT_VEHTYPE" speedFactor="0.99" vaporized=""/>
    <tripinfo id="17" depart="99.00" departLane="51o_0" departPos="5.10" departSpeed="0.00" departDelay="0.00" arrival="274.00" arrivalLane="51i_0" arrivalPos="10.00" arrivalSpeed="11.20" duration="175.00" routeLength="2040.12" waitingTime="0.00" waitingCount="0" stopTime="0.00" timeLoss="22.36" rerouteNo="0" devices="tripinfo_17" vType="DEFAULT_VEHTYPE" speedFactor="0.94" vaporized=""/>
    <tripinfo id="19" depart="108.00" departLane="51o_0" departPos="5.10" departSpeed="0.00" departDelay="0.00" arrival="276.00" arrivalLane="51i_0" arrivalPos="10.00" arrivalSpeed="13.72" duration="168.00" routeLength="2040.12" waitingTime="0.00" waitingCount="0" stopTime="0.00" timeLoss="43.58" rerouteNo="0" devices="tripinfo_19" vType="DEFAULT_VEHTYPE" speedFactor="1.16" vaporized=""/>
    <tripinfo id="14" depart="85.00" departLane="54o_0" departPos="5.10" departSpeed="0.00" departDelay="0.00" arrival="298.00" arrivalLane="54i_0" arrivalPos="10.00" arrivalSpeed="12.31" duration="213.00" routeLength="2040.12" waitingTime="49.00" waitingCount="1" stopTime="0.00" timeLoss="68.33" rerouteNo="0" devices="tripinfo_14" vType="DEFAULT_VEHTYPE" speedFactor="0.99" vaporized=""/>
    <tripinfo id="18" depart="99.00" departLane="54o_0" departPos="5.10" departSpeed="0.00" departDelay="0.00" arrival="309.00" arrivalLane="54i_0" arrivalPos="10.00" arrivalSpeed="11.89" duration="210.00" routeLength="2040.12" waitingTime="34.00" waitingCount="1" stopTime="0.00" timeLoss="55.35" rerouteNo="0" devices="tripinfo_18" vType="DEFAULT_VEHTYPE" speedFactor="0.94" vaporized=""/>
    <tripinfo id="22" depart="131.00" departLane="54o_0" departPos="5.10" departSpeed="0.00" departDelay="0.00" arrival="311.00" arrivalLane="54i_0" arrivalPos="10.00" arrivalSpeed="11.00" duration="180.00" routeLength="2040.12" waitingTime="6.00" waitingCount="1" stopTime="0.00" timeLoss="31.98" rerouteNo="0" devices="tripinfo_22" vType="DEFAULT_VEHTYPE" speedFactor="0.98" vaporized=""/>
    <tripinfo id="45" depart="238.00" departLane="51o_0" departPos="5.10" departSpeed="0.00" departDelay="0.00" arrival="315.00" arrivalLane="52i_0" arrivalPos="10.00" arrivalSpeed="12.60" duration="77.00" routeLength="1015.10" waitingTime="0.00" waitingCount="0" stopTime="0.00" timeLoss="11.11" rerouteNo="0" devices="tripinfo_45" vType="DEFAULT_VEHTYPE" speedFactor="1.09" vaporized=""/>
    <tripinfo id="20" depart="114.00" departLane="51o_0" departPos="5.10" departSpeed="0.00" departDelay="0.00" arrival="316.00" arrivalLane="51i_0" arrivalPos="10.00" arrivalSpeed="13.13" duration="202.00" routeLength="2040.12" waitingTime="37.00" waitingCount="1" stopTime="0.00" timeLoss="60.17" rerouteNo="0" devices="tripinfo_20" vType="DEFAULT_VEHTYPE" speedFactor="1.02" vaporized=""/>
    <tripinfo id="30" depart="167.00" departLane="51o_0" departPos="5.10" departSpeed="0.00" departDelay="0.00" arrival="318.00" arrivalLane="51i_0" arrivalPos="10.00" arrivalSpeed="14.37" duration="151.00" routeLength="2040.12" waitingTime="8.00" waitingCount="1" stopTime="0.00" timeLoss="28.29" rerouteNo="0" devices="tripinfo_30" vType="DEFAULT_VEHTYPE" speedFactor="1.18" vaporized=""/>
    <tripinfo id="31" depart="170.00" departLane="51o_0" departPos="5.10" departSpeed="0.00" departDelay="2.00" arrival="320.00" arrivalLane="51i_0" arrivalPos="10.00" arrivalSpeed="12.63" duration="150.00" routeLength="2040.12" waitingTime="5.00" waitingCount="1" stopTime="0.00" timeLoss="25.13" rerouteNo="0" devices="tripinfo_31" vType="DEFAULT_VEHTYPE" speedFactor="1.15" vaporized=""/>
    <tripinfo id="46" depart="242.00" departLane="51o_0" departPos="5.10" departSpeed="0.00" departDelay="0.00" arrival="323.00" arrivalLane="52i_0" arrivalPos="10.00" arrivalSpeed="12.88" duration="81.00" routeLength="1015.10" waitingTime="0.00" waitingCount="0" stopTime="0.00" timeLoss="8.81" rerouteNo="0" devices="tripinfo_46" vType="DEFAULT_VEHTYPE" speedFactor="1.00" vaporized=""/>
    <tripinfo id="35" depart="176.00" departLane="51o_0" departPos="5.10" departSpeed="0.00" departDelay="0.00" arrival="339.00" arrivalLane="51i_0" arrivalPos="10.00" arrivalSpeed="13.57" duration="163.00" routeLength="2040.12" waitingTime="0.00" waitingCount="0" stopTime="0.00" timeLoss="22.24" rerouteNo="0" devices="tripinfo_35" vType="DEFAULT_VEHTYPE" speedFactor="1.02" vaporized=""/>
    <tripinfo id="36" depart="181.00" departLane="51o_0" departPos="5.10" departSpeed="0.00" departDelay="0.00" arrival="346.00" arrivalLane="51i_0" arrivalPos="10.00" arrivalSpeed="12.28" duration="165.00" routeLength="2040.12" waitingTime="0.00" waitingCount="0" stopTime="0.00" timeLoss="17.10" rerouteNo="0" devices="tripinfo_36" vType="DEFAULT_VEHTYPE" speedFactor="0.97" vaporized=""/>
    <tripinfo id="23" depart="135.00" departLane="54o_0" departPos="5.10" departSpeed="0.00" departDelay="0.00" arrival="368.00" arrivalLane="54i_0" arrivalPos="10.00" arrivalSpeed="10.93" duration="233.00" routeLength="2040.12" waitingTime="43.00" waitingCount="1" stopTime="0.00" timeLoss="71.36" rerouteNo="0" devices="tripinfo_23" vType="DEFAULT_VEHTYPE" speedFactor="0.89" vaporized=""/>
    <tripinfo id="24" depart="138.00" departLane="54o_0" departPos="5.10" departSpeed="0.00" departDelay="0.00" arrival="375.00" arrivalLane="54i_0" arrivalPos="10.00" arrivalSpeed="11.52" duration="237.00" routeLength="2040.12" waitingTime="35.00" waitingCount="1" stopTime="0.00" timeLoss="61.99" rerouteNo="0" devices="tripinfo_24" vType="DEFAULT_VEHTYPE" speedFactor="0.83" vaporized=""/>
    <tripinfo id="25" depart="142.00" departLane="54o_0" departPos="5.10" departSpeed="0.00" departDelay="0.00" arrival="377.00" arrivalLane="54i_0" arrivalPos="10.00" arrivalSpeed="11.22" duration="235.00" routeLength="2040.12" waitingTime="35.00" waitingCount="1" stopTime="0.00" timeLoss="69.49" rerouteNo="0" devices="tripinfo_25" vType="DEFAULT_VEHTYPE" speedFactor="0.87" vaporized=""/>
    <tripinfo id="26" depart="153.00" departLane="54o_0" departPos="5.10" departSpeed="0.00" departDelay="0.00" arrival="379.00" arrivalLane="54i_0" arrivalPos="10.00" arrivalSpeed="10.66" duration="226.00" routeLength="2040.12" waitingTime="33.00" waitingCount="1" stopTime="0.00" timeLoss="68.46" rerouteNo="0" devices="tripinfo_26" vType="DEFAULT_VEHTYPE" speedFactor="0.92" vaporized=""/>
    <tripinfo id="27" depart="156.00" departLane="54o_0" departPos="5.10" departSpeed="0.00" departDelay="0.00" arrival="381.00" arrivalLane="54i_0" arrivalPos="10.00" arrivalSpeed="11.90" duration="225.00" routeLength="2040.12" waitingTime="32.00" waitingCount="1" stopTime="0.00" timeLoss="72.44" rerouteNo="0" devices="tripinfo_27" vType="DEFAULT_VEHTYPE" speedFactor="0.95" vaporized=""/>
    <tripinfo id="28" depart="160.00" departLane="54o_0" departPos="5.10" departSpeed="0.00" departDelay="0.00" arrival="382.00" arrivalLane="54i_0" arrivalPos="10.00" arrivalSpeed="11.99" duration="222.00" routeLength="2040.12" waitingTime="32.00" waitingCount="1" stopTime="0.00" timeLoss="94.76" rerouteNo="0" devices="tripinfo_28" vType="DEFAULT_VEHTYPE" speedFactor="1.13" vaporized=""/>
    <tripinfo id="29" depart="164.00" departLane="54o_0" departPos="5.10" departSpeed="0.00" departDelay="0.00" arrival="385.00" arrivalLane="54i_0" arrivalPos="10.00" arrivalSpeed="10.49" duration="221.00" routeLength="2040.12" waitingTime="31.00" waitingCount="2" stopTime="0.00" timeLoss="65.69" rerouteNo="0" devices="tripinfo_29" vType="DEFAULT_VEHTYPE" speedFactor="0.93" vaporized=""/>
    <tripinfo id="32" depart="169.00" departLane="54o_0" departPos="5.10" departSpeed="0.00" departDelay="0.00" arrival="387.00" arrivalLane="54i_0" arrivalPos="10.00" arrivalSpeed="11.94" duration="218.00" routeLength="2040.12" waitingTime="31.00" waitingCount="1" stopTime="0.00" timeLoss="74.48" rerouteNo="0" devices="tripinfo_32" vType="DEFAULT_VEHTYPE" speedFactor="1.01" vaporized=""/>
    <tripinfo id="33" depart="172.00" departLane="54o_0" departPos="5.10" departSpeed="0.00" departDelay="0.00" arrival="389.00" arrivalLane="54i_0" arrivalPos="10.00" arrivalSpeed="13.87" duration="217.00" routeLength="2040.12" waitingTime="42.00" waitingCount="2" stopTime="0.00" timeLoss="93.49" rerouteNo="0" devices="tripinfo_33" vType="DEFAULT_VEHTYPE" speedFactor="1.17" vaporized=""/>
    <tripinfo id="37" depart="194.00" departLane="54o_0" departPos="5.10" departSpeed="0.00" departDelay="0.00" arrival="390.00" arrivalLane="54i_0" arrivalPos="10.00" arrivalSpeed="12.30" duration="196.00" routeLength="2040.12" waitingTime="21.00" waitingCount="2" stopTime="0.00" timeLoss="73.36" rerouteNo="0" devices="tripinfo_37" vType="DEFAULT_VEHTYPE" speedFactor="1.18" vaporized=""/>
    <tripinfo id="38" depart="197.00" departLane="54o_0" departPos="5.10" departSpeed="0.00" departDelay="1.00" arrival="392.00" arrivalLane="54i_0" arrivalPos="10.00" arrivalSpeed="13.19" duration="195.00" routeLength="2040.12" waitingTime="17.00" waitingCount="2" stopTime="0.00" timeLoss="64.21" rerouteNo="0" devices="tripinfo_38" vType="DEFAULT_VEHTYPE" speedFactor="1.10" vaporized=""/>
    <tripinfo id="39" depart="200.00" departLane="54o_0" departPos="5.10" departSpeed="0.00" departDelay="1.00" arrival="395.00" arrivalLane="54i_0" arrivalPos="10.00" arrivalSpeed="11.32" duration="195.00" routeLength="2040.12" waitingTime="0.00" waitingCount="0" stopTime="0.00" timeLoss="34.48" rerouteNo="0" devices="tripinfo_39" vType="DEFAULT_VEHTYPE" speedFactor="0.90" vaporized=""/>
    <tripinfo id="42" depart="228.00" departLane="51o_0" departPos="5.10" departSpeed="0.00" departDelay="0.00" arrival="395.00" arrivalLane="51i_0" arrivalPos="10.00" arrivalSpeed="13.93" duration="167.00" routeLength="2040.12" waitingTime="9.00" waitingCount="2" stopTime="0.00" timeLoss="34.69" rerouteNo="0" devices="tripinfo_42" vType="DEFAULT_VEHTYPE" speedFactor="1.09" vaporized=""/>
    <tripinfo id="40" depart="212.00" departLane="54o_0" departPos="5.10" departSpeed="0.00" departDelay="0.00" arrival="397.00" arrivalLane="54i_0" arrivalPos="10.00" arrivalSpeed="12.10" duration="185.00" routeLength="2040.12" waitingTime="0.00" waitingCount="0" stopTime="0.00" timeLoss="44.52" rerouteNo="0" devices="tripinfo_40" vType="DEFAULT_VEHTYPE" speedFactor="1.03" vaporized=""/>
    <tripinfo id="41" depart="219.00" departLane="54o_0" departPos="5.10" departSpeed="0.00" departDelay="0.00" arrival="399.00" arrivalLane="54i_0" arrivalPos="10.00" arrivalSpeed="12.30" duration="180.00" routeLength="2040.12" waitingTime="0.00" waitingCount="0" stopTime="0.00" timeLoss="29.11" rerouteNo="0" devices="tripinfo_41" vType="DEFAULT_VEHTYPE" speedFactor="0.96" vaporized=""/>
    <tripinfo id="49" depart="283.00" departLane="51o_0" departPos="5.10" departSpeed="0.00" departDelay="0.00" arrival="408.00" arrivalLane="52i_0" arrivalPos="10.00" arrivalSpeed="11.58" duration="125.00" routeLength="1015.10" waitingTime="25.00" waitingCount="1" stopTime="0.00" timeLoss="40.17" rerouteNo="0" devices="tripinfo_49" vType="DEFAULT_VEHTYPE" speedFactor="0.85" vaporized=""/>
    <tripinfo id="51" depart="302.00" departLane="51o_0" departPos="5.10" departSpeed="0.00" departDelay="0.00" arrival="412.00" arrivalLane="52i_0" arrivalPos="10.00" arrivalSpeed="11.57" duration="110.00" routeLength="1015.10" waitingTime="14.00" waitingCount="1" stopTime="0.00" timeLoss="48.84" rerouteNo="0" devices="tripinfo_51" vType="DEFAULT_VEHTYPE" speedFactor="1.17" vaporized=""/>
    <tripinfo id="52" depart="318.00" departLane="51o_0" departPos="5.10" departSpeed="0.00" departDelay="0.00" arrival="414.00" arrivalLane="52i_0" arrivalPos="10.00" arrivalSpeed="11.88" duration="96.00" routeLength="1015.10" waitingTime="0.00" waitingCount="0" stopTime="0.00" timeLoss="25.55" rerouteNo="0" devices="tripinfo_52" vType="DEFAULT_VEHTYPE" speedFactor="1.02" vaporized=""/>
    <tripinfo id="54" depart="331.00" departLane="51o_0" departPos="5.10" departSpeed="0.00" departDelay="0.00" arrival="418.00" arrivalLane="52i_0" arrivalPos="10.00" arrivalSpeed="13.68" duration="87.00" routeLength="1015.10" waitingTime="0.00" waitingCount="0" stopTime="0.00" timeLoss="15.25" rerouteNo="0" devices="tripinfo_54" vType="DEFAULT_VEHTYPE" speedFactor="1.00" vaporized=""/>
</tripinfos>
